
                                 *****************
                                 * O   R   C   A *
                                 *****************

                                            #,                                       
                                            ###                                      
                                            ####                                     
                                            #####                                    
                                            ######                                   
                                           ########,                                 
                                     ,,################,,,,,                         
                               ,,#################################,,                 
                          ,,##########################################,,             
                       ,#########################################, ''#####,          
                    ,#############################################,,   '####,        
                  ,##################################################,,,,####,       
                ,###########''''           ''''###############################       
              ,#####''   ,,,,##########,,,,          '''####'''          '####       
            ,##' ,,,,###########################,,,                        '##       
           ' ,,###''''                  '''############,,,                           
         ,,##''                                '''############,,,,        ,,,,,,###''
      ,#''                                            '''#######################'''  
     '                                                          ''''####''''         
             ,#######,   #######,   ,#######,      ##                                
            ,#'     '#,  ##    ##  ,#'     '#,    #''#        ######   ,####,        
            ##       ##  ##   ,#'  ##            #'  '#       #        #'  '#        
            ##       ##  #######   ##           ,######,      #####,   #    #        
            '#,     ,#'  ##    ##  '#,     ,#' ,#      #,         ##   #,  ,#        
             '#######'   ##     ##  '#######'  #'      '#     #####' # '####'        



                  #######################################################
                  #                        -***-                        #
                  #          Department of theory and spectroscopy      #
                  #    Directorship and core code : Frank Neese         #
                  #        Max Planck Institute fuer Kohlenforschung    #
                  #                Kaiser Wilhelm Platz 1               #
                  #                 D-45470 Muelheim/Ruhr               #
                  #                      Germany                        #
                  #                                                     #
                  #                  All rights reserved                #
                  #                        -***-                        #
                  #######################################################


                         Program Version 5.0.4 -  RELEASE  -


 With contributions from (in alphabetic order):
   Daniel Aravena         : Magnetic Suceptibility
   Michael Atanasov       : Ab Initio Ligand Field Theory (pilot matlab implementation)
   Alexander A. Auer      : GIAO ZORA, VPT2 properties, NMR spectrum
   Ute Becker             : Parallelization
   Giovanni Bistoni       : ED, misc. LED, open-shell LED, HFLD
   Martin Brehm           : Molecular dynamics
   Dmytro Bykov           : SCF Hessian
   Vijay G. Chilkuri      : MRCI spin determinant printing, contributions to CSF-ICE
   Dipayan Datta          : RHF DLPNO-CCSD density
   Achintya Kumar Dutta   : EOM-CC, STEOM-CC
   Dmitry Ganyushin       : Spin-Orbit,Spin-Spin,Magnetic field MRCI
   Miquel Garcia          : C-PCM and meta-GGA Hessian, CC/C-PCM, Gaussian charge scheme
   Yang Guo               : DLPNO-NEVPT2, F12-NEVPT2, CIM, IAO-localization
   Andreas Hansen         : Spin unrestricted coupled pair/coupled cluster methods
   Benjamin Helmich-Paris : MC-RPA, TRAH-SCF, COSX integrals
   Lee Huntington         : MR-EOM, pCC
   Robert Izsak           : Overlap fitted RIJCOSX, COSX-SCS-MP3, EOM
   Marcus Kettner         : VPT2
   Christian Kollmar      : KDIIS, OOCD, Brueckner-CCSD(T), CCSD density, CASPT2, CASPT2-K
   Simone Kossmann        : Meta GGA functionals, TD-DFT gradient, OOMP2, MP2 Hessian
   Martin Krupicka        : Initial AUTO-CI
   Lucas Lang             : DCDCAS
   Marvin Lechner         : AUTO-CI (C++ implementation), FIC-MRCC
   Dagmar Lenk            : GEPOL surface, SMD
   Dimitrios Liakos       : Extrapolation schemes; Compound Job, initial MDCI parallelization
   Dimitrios Manganas     : Further ROCIS development; embedding schemes
   Dimitrios Pantazis     : SARC Basis sets
   Anastasios Papadopoulos: AUTO-CI, single reference methods and gradients
   Taras Petrenko         : DFT Hessian,TD-DFT gradient, ASA, ECA, R-Raman, ABS, FL, XAS/XES, NRVS
   Peter Pinski           : DLPNO-MP2, DLPNO-MP2 Gradient
   Christoph Reimann      : Effective Core Potentials
   Marius Retegan         : Local ZFS, SOC
   Christoph Riplinger    : Optimizer, TS searches, QM/MM, DLPNO-CCSD(T), (RO)-DLPNO pert. Triples
   Tobias Risthaus        : Range-separated hybrids, TD-DFT gradient, RPA, STAB
   Michael Roemelt        : Original ROCIS implementation
   Masaaki Saitow         : Open-shell DLPNO-CCSD energy and density
   Barbara Sandhoefer     : DKH picture change effects
   Avijit Sen             : IP-ROCIS
   Kantharuban Sivalingam : CASSCF convergence, NEVPT2, FIC-MRCI
   Bernardo de Souza      : ESD, SOC TD-DFT
   Georgi Stoychev        : AutoAux, RI-MP2 NMR, DLPNO-MP2 response
   Willem Van den Heuvel  : Paramagnetic NMR
   Boris Wezisla          : Elementary symmetry handling
   Frank Wennmohs         : Technical directorship


 We gratefully acknowledge several colleagues who have allowed us to
 interface, adapt or use parts of their codes:
   Stefan Grimme, W. Hujo, H. Kruse, P. Pracht,  : VdW corrections, initial TS optimization,
                  C. Bannwarth, S. Ehlert          DFT functionals, gCP, sTDA/sTD-DF
   Ed Valeev, F. Pavosevic, A. Kumar             : LibInt (2-el integral package), F12 methods
   Garnet Chan, S. Sharma, J. Yang, R. Olivares  : DMRG
   Ulf Ekstrom                                   : XCFun DFT Library
   Mihaly Kallay                                 : mrcc  (arbitrary order and MRCC methods)
   Jiri Pittner, Ondrej Demel                    : Mk-CCSD
   Frank Weinhold                                : gennbo (NPA and NBO analysis)
   Christopher J. Cramer and Donald G. Truhlar   : smd solvation model
   Lars Goerigk                                  : TD-DFT with DH, B97 family of functionals
   V. Asgeirsson, H. Jonsson                     : NEB implementation
   FAccTs GmbH                                   : IRC, NEB, NEB-TS, DLPNO-Multilevel, CI-OPT
                                                   MM, QMMM, 2- and 3-layer-ONIOM, Crystal-QMMM,
                                                   LR-CPCM, SF, NACMEs, symmetry and pop. for TD-DFT,
                                                   nearIR, NL-DFT gradient (VV10), updates on ESD,
                                                   ML-optimized integration grids
   S Lehtola, MJT Oliveira, MAL Marques          : LibXC Library
   Liviu Ungur et al                             : ANISO software


 Your calculation uses the libint2 library for the computation of 2-el integrals
 For citations please refer to: http://libint.valeyev.net

 Your ORCA version has been built with support for libXC version: 5.1.0
 For citations please refer to: https://tddft.org/programs/libxc/

 This ORCA versions uses:
   CBLAS   interface :  Fast vector & matrix operations
   LAPACKE interface :  Fast linear algebra routines
   SCALAPACK package :  Parallel linear algebra routines
   Shared memory     :  Shared parallel matrices
   BLAS/LAPACK       :  OpenBLAS 0.3.19 NO_AFFINITY VORTEX SINGLE_THREADED
        Core in use  :  VORTEX
   Copyright (c) 2011-2014, The OpenBLAS Project


================================================================================

----- Orbital basis set information -----
Your calculation utilizes the basis: 3-21G
   H-Ne       : J. S. Binkley, J. A. Pople and W. J. Hehre, J. Am. Chem. Soc. 102 939 (1980).
   Na-Ar      : M. S. Gordon, J. S. Binkley, J. A. Pople, W. J. Pietro and W.J. Hehre, J. Am. Chem. Soc. 104, 2797 (1983).
   K-Ca, Ga-Kr: K. D. Dobbs and W. J. Hehre, J. Comput. Chem. 7, 359 (1986).
   Sc-Zn      : K. D. Dobbs and W. J. Hehre, J. Comput. Chem. 8, 861 (1987).
   Y-Cd       : K. D. Dobbs and W. J. Hehre, J. Comput. Chem. 8, 880 (1987).

================================================================================
                                        WARNINGS
                       Please study these warnings very carefully!
================================================================================


INFO   : the flag for use of the SHARK integral package has been found!

================================================================================
                                       INPUT FILE
================================================================================
NAME = orca.inp
|  1> ! engrad HF 3-21g VeryTightSCF FREQ 
|  2> %scf maxiter 200 end 
|  3> *xyz 0 1 
|  4> C   0.0 1.4 0.0
|  5> C   0.0 -1.4 -0.0
|  6> C   0.0 -0.77 -1.2
|  7> C   0.0 0.77 -1.2
|  8> C   -1.73205 0.7 1.0
|  9> C   -1.73205 -0.7 1.0
| 10> H   0.08152 -1.34396 -2.11122
| 11> H   0.08152 1.34396 -2.11122
| 12> H   0.08311 2.47677 0.00735
| 13> H   0.08311 -2.47677 0.00735
| 14> H   -0.0993 0.80324 0.89587
| 15> H   -0.0993 -0.80324 0.89587
| 16> H   -2.2785 1.20656 0.21959
| 17> H   -2.2785 -1.20656 0.21959
| 18> H   -1.34601 1.21533 1.86707
| 19> H   -1.34601 -1.21533 1.86707
| 20> *
| 21> 
| 22>                          ****END OF INPUT****
================================================================================

                     *******************************
                     * Energy+Gradient Calculation *
                     *******************************

---------------------------------
CARTESIAN COORDINATES (ANGSTROEM)
---------------------------------
  C      0.000000    1.400000    0.000000
  C      0.000000   -1.400000   -0.000000
  C      0.000000   -0.770000   -1.200000
  C      0.000000    0.770000   -1.200000
  C     -1.732050    0.700000    1.000000
  C     -1.732050   -0.700000    1.000000
  H      0.081520   -1.343960   -2.111220
  H      0.081520    1.343960   -2.111220
  H      0.083110    2.476770    0.007350
  H      0.083110   -2.476770    0.007350
  H     -0.099300    0.803240    0.895870
  H     -0.099300   -0.803240    0.895870
  H     -2.278500    1.206560    0.219590
  H     -2.278500   -1.206560    0.219590
  H     -1.346010    1.215330    1.867070
  H     -1.346010   -1.215330    1.867070

----------------------------
CARTESIAN COORDINATES (A.U.)
----------------------------
  NO LB      ZA    FRAG     MASS         X           Y           Z
   0 C     6.0000    0    12.011    0.000000    2.645617    0.000000
   1 C     6.0000    0    12.011    0.000000   -2.645617   -0.000000
   2 C     6.0000    0    12.011    0.000000   -1.455089   -2.267671
   3 C     6.0000    0    12.011    0.000000    1.455089   -2.267671
   4 C     6.0000    0    12.011   -3.273100    1.322808    1.889726
   5 C     6.0000    0    12.011   -3.273100   -1.322808    1.889726
   6 H     1.0000    0     1.008    0.154050   -2.539716   -3.989628
   7 H     1.0000    0     1.008    0.154050    2.539716   -3.989628
   8 H     1.0000    0     1.008    0.157055    4.680417    0.013889
   9 H     1.0000    0     1.008    0.157055   -4.680417    0.013889
  10 H     1.0000    0     1.008   -0.187650    1.517904    1.692949
  11 H     1.0000    0     1.008   -0.187650   -1.517904    1.692949
  12 H     1.0000    0     1.008   -4.305741    2.280068    0.414965
  13 H     1.0000    0     1.008   -4.305741   -2.280068    0.414965
  14 H     1.0000    0     1.008   -2.543590    2.296641    3.528251
  15 H     1.0000    0     1.008   -2.543590   -2.296641    3.528251

--------------------------------
INTERNAL COORDINATES (ANGSTROEM)
--------------------------------
 C      0   0   0     0.000000000000     0.00000000     0.00000000
 C      1   0   0     2.800000000000     0.00000000     0.00000000
 C      2   1   0     1.355322839769    62.30052719     0.00000000
 C      1   2   3     1.355322839769    62.30052719     0.00000000
 C      1   2   3     2.118961349931    70.70994753   120.00001157
 C      5   1   2     1.400000000000   109.29005247     0.00000000
 H      3   2   1     1.079998833518   119.99980370   174.99984550
 H      4   1   2     1.079998833518   119.99980370   185.00015450
 H      1   2   3     1.079997651618   175.56924465   264.94608088
 H      2   1   3     1.079997651618   175.56924465    95.05391912
 H      1   2   3     1.081002333254    56.49270094   173.67504102
 H      2   1   3     1.081002333254    56.49270094   186.32495898
 H      5   1   2     1.079004357823    85.27028763   241.95687879
 H      6   5   1     1.079004357823   117.99988801   264.99996057
 H      5   1   2     1.080001053425    85.93310543   118.81152103
 H      6   5   1     1.080001053425   118.49988146    96.00025621

---------------------------
INTERNAL COORDINATES (A.U.)
---------------------------
 C      0   0   0     0.000000000000     0.00000000     0.00000000
 C      1   0   0     5.291233174980     0.00000000     0.00000000
 C      2   1   0     2.561188990212    62.30052719     0.00000000
 C      1   2   3     2.561188990212    62.30052719     0.00000000
 C      1   2   3     4.004256639733    70.70994753   120.00001157
 C      5   1   2     2.645616587490   109.29005247     0.00000000
 H      3   2   1     2.040902020303   119.99980370   174.99984550
 H      4   1   2     2.040902020303   119.99980370   185.00015450
 H      1   2   3     2.040899786836   175.56924465   264.94608088
 H      2   1   3     2.040899786836   175.56924465    95.05391912
 H      1   2   3     2.042798359979    56.49270094   173.67504102
 H      2   1   3     2.042798359979    56.49270094   186.32495898
 H      5   1   2     2.039022733592    85.27028763   241.95687879
 H      6   5   1     2.039022733592   117.99988801   264.99996057
 H      5   1   2     2.040906215320    85.93310543   118.81152103
 H      6   5   1     2.040906215320   118.49988146    96.00025621

---------------------
BASIS SET INFORMATION
---------------------
There are 2 groups of distinct atoms

 Group   1 Type C   : 6s3p contracted to 3s2p pattern {321/21}
 Group   2 Type H   : 3s contracted to 2s pattern {21}

Atom   0C    basis set group =>   1
Atom   1C    basis set group =>   1
Atom   2C    basis set group =>   1
Atom   3C    basis set group =>   1
Atom   4C    basis set group =>   1
Atom   5C    basis set group =>   1
Atom   6H    basis set group =>   2
Atom   7H    basis set group =>   2
Atom   8H    basis set group =>   2
Atom   9H    basis set group =>   2
Atom  10H    basis set group =>   2
Atom  11H    basis set group =>   2
Atom  12H    basis set group =>   2
Atom  13H    basis set group =>   2
Atom  14H    basis set group =>   2
Atom  15H    basis set group =>   2
------------------------------------------------------------------------------
                           ORCA GTO INTEGRAL CALCULATION
------------------------------------------------------------------------------
------------------------------------------------------------------------------
                   ___                                                        
                  /   \      - P O W E R E D   B Y -                         
                 /     \                                                     
                 |  |  |   _    _      __       _____    __    __             
                 |  |  |  | |  | |    /  \     |  _  \  |  |  /  |          
                  \  \/   | |  | |   /    \    | | | |  |  | /  /          
                 / \  \   | |__| |  /  /\  \   | |_| |  |  |/  /          
                |  |  |   |  __  | /  /__\  \  |    /   |      \           
                |  |  |   | |  | | |   __   |  |    \   |  |\   \          
                \     /   | |  | | |  |  |  |  | |\  \  |  | \   \       
                 \___/    |_|  |_| |__|  |__|  |_| \__\ |__|  \__/        
                                                                              
                      - O R C A' S   B I G   F R I E N D -                    
                                      &                                       
                       - I N T E G R A L  F E E D E R -                       
                                                                              
 v1 FN, 2020, v2 2021                                                         
------------------------------------------------------------------------------


Reading SHARK input file orca.SHARKINP.tmp ... ok
----------------------
SHARK INTEGRAL PACKAGE
----------------------

Number of atoms                             ...     16
Number of basis functions                   ...     74
Number of shells                            ...     50
Maximum angular momentum                    ...      1
Integral batch strategy                     ... SHARK/LIBINT Hybrid
RI-J (if used) integral strategy            ... SPLIT-RIJ (Revised 2003 algorithm where possible)
Printlevel                                  ...      1
Contraction scheme used                     ... SEGMENTED contraction
Coulomb Range Separation                    ... NOT USED
Exchange Range Separation                   ... NOT USED
Finite Nucleus Model                        ... NOT USED
Auxiliary Coulomb fitting basis             ... NOT available
Auxiliary J/K fitting basis                 ... NOT available
Auxiliary Correlation fitting basis         ... NOT available
Auxiliary 'external' fitting basis          ... NOT available
Integral threshold                          ...     1.000000e-12
Primitive cut-off                           ...     1.000000e-14
Primitive pair pre-selection threshold      ...     1.000000e-14

Calculating pre-screening integrals         ... done (  0.0 sec) Dimension = 50
Organizing shell pair data                  ... done (  0.0 sec)
Shell pair information
Total number of shell pairs                 ...      1275
Shell pairs after pre-screening             ...      1251
Total number of primitive shell pairs       ...      3610
Primitive shell pairs kept                  ...      2940
          la=0 lb=0:    717 shell pairs
          la=1 lb=0:    456 shell pairs
          la=1 lb=1:     78 shell pairs

Calculating one electron integrals          ... done (  0.0 sec)
Calculating Nuclear repulsion               ... done (  0.0 sec) ENN=    229.846296086317 Eh

SHARK setup successfully completed in   0.0 seconds

Maximum memory used throughout the entire GTOINT-calculation: 4.8 MB
-------------------------------------------------------------------------------
                                 ORCA SCF
-------------------------------------------------------------------------------

------------
SCF SETTINGS
------------
Hamiltonian:
 Ab initio Hamiltonian  Method          .... Hartree-Fock(GTOs)


General Settings:
 Integral files         IntName         .... orca
 Hartree-Fock type      HFTyp           .... RHF
 Total Charge           Charge          ....    0
 Multiplicity           Mult            ....    1
 Number of Electrons    NEL             ....   46
 Basis Dimension        Dim             ....   74
 Nuclear Repulsion      ENuc            ....    229.8462960863 Eh

Convergence Acceleration:
 DIIS                   CNVDIIS         .... on
   Start iteration      DIISMaxIt       ....    12
   Startup error        DIISStart       ....  0.200000
   # of expansion vecs  DIISMaxEq       ....     5
   Bias factor          DIISBfac        ....   1.050
   Max. coefficient     DIISMaxC        ....  10.000
 Trust-Rad. Augm. Hess. CNVTRAH         .... auto
   Auto Start mean grad. ratio tolernc. ....  1.125000
   Auto Start start iteration           ....    20
   Auto Start num. interpolation iter.  ....    10
   Max. Number of Micro iterations      ....    16
   Max. Number of Macro iterations      .... Maxiter - #DIIS iter
   Number of Davidson start vectors     ....     2
   Converg. threshold I  (grad. norm)   ....   2.000e-06
   Converg. threshold II (energy diff.) ....   1.000e-09
   Grad. Scal. Fac. for Micro threshold ....   0.100
   Minimum threshold for Micro iter.    ....   0.010
   NR start threshold (gradient norm)   ....   0.001
   Initial trust radius                 ....   0.400
   Minimum AH scaling param. (alpha)    ....   1.000
   Maximum AH scaling param. (alpha)    .... 1000.000
   Orbital update algorithm             .... Taylor
   White noise on init. David. guess    .... on
   Maximum white noise                  ....   0.010
   Quad. conv. algorithm                .... NR
 SOSCF                  CNVSOSCF        .... on
   Start iteration      SOSCFMaxIt      ....   150
   Startup grad/error   SOSCFStart      ....  0.003300
 Level Shifting         CNVShift        .... on
   Level shift para.    LevelShift      ....    0.2500
   Turn off err/grad.   ShiftErr        ....    0.0010
 Zerner damping         CNVZerner       .... off
 Static damping         CNVDamp         .... on
   Fraction old density DampFac         ....    0.7000
   Max. Damping (<1)    DampMax         ....    0.9800
   Min. Damping (>=0)   DampMin         ....    0.0000
   Turn off err/grad.   DampErr         ....    0.1000
 Fernandez-Rico         CNVRico         .... off

SCF Procedure:
 Maximum # iterations   MaxIter         ....   200
 SCF integral mode      SCFMode         .... Direct
   Integral package                     .... SHARK and LIBINT hybrid scheme
 Reset frequency        DirectResetFreq ....    20
 Integral Threshold     Thresh          ....  1.000e-12 Eh
 Primitive CutOff       TCut            ....  1.000e-14 Eh

Convergence Tolerance:
 Convergence Check Mode ConvCheckMode   .... Total+1el-Energy
 Convergence forced     ConvForced      .... 0
 Energy Change          TolE            ....  1.000e-09 Eh
 1-El. energy change                    ....  1.000e-06 Eh
 Orbital Gradient       TolG            ....  2.000e-06
 Orbital Rotation angle TolX            ....  2.000e-06
 DIIS Error             TolErr          ....  1.000e-08


Diagonalization of the overlap matrix:
Smallest eigenvalue                        ... 5.887e-03
Time for diagonalization                   ...    0.002 sec
Threshold for overlap eigenvalues          ... 1.000e-08
Number of eigenvalues below threshold      ... 0
Time for construction of square roots      ...    0.001 sec
Total time needed                          ...    0.003 sec

Time for model grid setup =    0.060 sec

------------------------------
INITIAL GUESS: MODEL POTENTIAL
------------------------------
Loading Hartree-Fock densities                     ... done
Calculating cut-offs                               ... done
Initializing the effective Hamiltonian             ... done
Setting up the integral package (SHARK)            ... done
Starting the Coulomb interaction                   ... done (   0.0 sec)
Reading the grid                                   ... done
Mapping shells                                     ... done
Starting the XC term evaluation                    ... done (   0.0 sec)
Transforming the Hamiltonian                       ... done (   0.0 sec)
Diagonalizing the Hamiltonian                      ... done (   0.0 sec)
Back transforming the eigenvectors                 ... done (   0.0 sec)
Now organizing SCF variables                       ... done
                      ------------------
                      INITIAL GUESS DONE (   0.1 sec)
                      ------------------
--------------
SCF ITERATIONS
--------------
ITER       Energy         Delta-E        Max-DP      RMS-DP      [F,P]     Damp
               ***  Starting incremental Fock matrix formation  ***
  0   -231.2738308718   0.000000000000 0.03656970  0.00313092  0.1537343 0.7000
  1   -231.3478237479  -0.073992876128 0.03433658  0.00257074  0.1032932 0.7000
                               ***Turning on DIIS***
  2   -231.3941855936  -0.046361845688 0.08116964  0.00576283  0.0716201 0.0000
  3   -231.1565057707   0.237679822947 0.01613940  0.00142748  0.0211147 0.0000
  4   -231.4619380923  -0.305432321612 0.00451314  0.00041329  0.0029138 0.0000
  5   -231.4823474340  -0.020409341729 0.00381550  0.00025500  0.0020126 0.0000
                      *** Initiating the SOSCF procedure ***
                           *** Shutting down DIIS ***
                      *** Re-Reading the Fockian *** 
                      *** Removing any level shift *** 
ITER      Energy       Delta-E        Grad      Rot      Max-DP    RMS-DP
  6   -231.48848446  -0.0061370279  0.002520  0.002520  0.002764  0.000161
               *** Restarting incremental Fock matrix formation ***
  7   -231.48961116  -0.0011267012  0.001214  0.002886  0.001917  0.000103
  8   -231.48963008  -0.0000189184  0.000669  0.004359  0.003038  0.000170
  9   -231.48964154  -0.0000114601  0.000166  0.000311  0.000193  0.000018
 10   -231.48964184  -0.0000003015  0.000057  0.000134  0.000063  0.000007
 11   -231.48964192  -0.0000000768  0.000013  0.000026  0.000022  0.000002
 12   -231.48964192  -0.0000000027  0.000004  0.000015  0.000015  0.000001
 13   -231.48964192  -0.0000000005  0.000001  0.000001  0.000001  0.000000
                  ***Gradient check signals convergence***
              ***Rediagonalizing the Fockian in SOSCF/NRSCF***

               *****************************************************
               *                     SUCCESS                       *
               *           SCF CONVERGED AFTER  14 CYCLES          *
               *****************************************************


----------------
TOTAL SCF ENERGY
----------------

Total Energy       :         -231.48964192 Eh           -6299.15340 eV

Components:
Nuclear Repulsion  :          229.84629609 Eh            6254.43569 eV
Electronic Energy  :         -461.33593801 Eh          -12553.58909 eV
One Electron Energy:         -766.37765973 Eh          -20854.19633 eV
Two Electron Energy:          305.04172172 Eh            8300.60724 eV

Virial components:
Potential Energy   :         -462.69380101 Eh          -12590.53842 eV
Kinetic Energy     :          231.20415909 Eh            6291.38502 eV
Virial Ratio       :            2.00123477


---------------
SCF CONVERGENCE
---------------

  Last Energy change         ...   -3.7346e-11  Tolerance :   1.0000e-09
  Last MAX-Density change    ...    3.9625e-07  Tolerance :   1.0000e-08
  Last RMS-Density change    ...    3.5696e-08  Tolerance :   1.0000e-09
  Last Orbital Gradient      ...    2.2343e-07  Tolerance :   2.0000e-06
  Last Orbital Rotation      ...    3.5870e-07  Tolerance :   2.0000e-06

             **** THE GBW FILE WAS UPDATED (orca.gbw) ****
             **** DENSITY orca.scfp WAS UPDATED ****
             **** ENERGY FILE WAS UPDATED (orca.en.tmp) ****
             **** THE GBW FILE WAS UPDATED (orca.gbw) ****
             **** DENSITY orca.scfp WAS UPDATED ****
----------------
ORBITAL ENERGIES
----------------

  NO   OCC          E(Eh)            E(eV) 
   0   2.0000     -11.170597      -303.9674 
   1   2.0000     -11.170256      -303.9581 
   2   2.0000     -11.170218      -303.9571 
   3   2.0000     -11.169929      -303.9492 
   4   2.0000     -11.167571      -303.8851 
   5   2.0000     -11.167137      -303.8733 
   6   2.0000      -1.109516       -30.1915 
   7   2.0000      -1.021895       -27.8072 
   8   2.0000      -0.996785       -27.1239 
   9   2.0000      -0.825485       -22.4626 
  10   2.0000      -0.823938       -22.4205 
  11   2.0000      -0.699119       -19.0240 
  12   2.0000      -0.696033       -18.9400 
  13   2.0000      -0.663991       -18.0681 
  14   2.0000      -0.593024       -16.1370 
  15   2.0000      -0.577628       -15.7180 
  16   2.0000      -0.561097       -15.2682 
  17   2.0000      -0.548760       -14.9325 
  18   2.0000      -0.493600       -13.4315 
  19   2.0000      -0.483659       -13.1610 
  20   2.0000      -0.446262       -12.1434 
  21   2.0000      -0.310992        -8.4625 
  22   2.0000      -0.279617        -7.6088 
  23   0.0000       0.141294         3.8448 
  24   0.0000       0.170864         4.6495 
  25   0.0000       0.258850         7.0437 
  26   0.0000       0.281237         7.6529 
  27   0.0000       0.302412         8.2291 
  28   0.0000       0.318323         8.6620 
  29   0.0000       0.329749         8.9729 
  30   0.0000       0.337507         9.1840 
  31   0.0000       0.345610         9.4045 
  32   0.0000       0.368462        10.0264 
  33   0.0000       0.409485        11.1426 
  34   0.0000       0.419290        11.4095 
  35   0.0000       0.438121        11.9219 
  36   0.0000       0.497820        13.5464 
  37   0.0000       0.505432        13.7535 
  38   0.0000       0.610719        16.6185 
  39   0.0000       0.690069        18.7777 
  40   0.0000       0.826609        22.4932 
  41   0.0000       0.927769        25.2459 
  42   0.0000       0.946859        25.7653 
  43   0.0000       0.961205        26.1557 
  44   0.0000       0.972704        26.4686 
  45   0.0000       1.001537        27.2532 
  46   0.0000       1.015799        27.6413 
  47   0.0000       1.064164        28.9574 
  48   0.0000       1.066148        29.0114 
  49   0.0000       1.106662        30.1138 
  50   0.0000       1.119360        30.4593 
  51   0.0000       1.150579        31.3089 
  52   0.0000       1.186310        32.2811 
  53   0.0000       1.213268        33.0147 
  54   0.0000       1.275087        34.6969 
  55   0.0000       1.306591        35.5541 
  56   0.0000       1.326294        36.0903 
  57   0.0000       1.331353        36.2280 
  58   0.0000       1.364901        37.1408 
  59   0.0000       1.383581        37.6492 
  60   0.0000       1.387967        37.7685 
  61   0.0000       1.405650        38.2497 
  62   0.0000       1.435690        39.0671 
  63   0.0000       1.442094        39.2414 
  64   0.0000       1.532735        41.7078 
  65   0.0000       1.644155        44.7397 
  66   0.0000       1.695881        46.1473 
  67   0.0000       1.725150        46.9437 
  68   0.0000       1.782807        48.5127 
  69   0.0000       1.983019        53.9607 
  70   0.0000       2.045094        55.6498 
  71   0.0000       2.068099        56.2758 
  72   0.0000       2.346167        63.8425 
  73   0.0000       2.530071        68.8467 

                    ********************************
                    * MULLIKEN POPULATION ANALYSIS *
                    ********************************

-----------------------
MULLIKEN ATOMIC CHARGES
-----------------------
   0 C :   -0.423400
   1 C :   -0.423400
   2 C :   -0.243444
   3 C :   -0.243444
   4 C :   -0.529236
   5 C :   -0.529236
   6 H :    0.222583
   7 H :    0.222583
   8 H :    0.223195
   9 H :    0.223195
  10 H :    0.251856
  11 H :    0.251856
  12 H :    0.262313
  13 H :    0.262313
  14 H :    0.236132
  15 H :    0.236132
Sum of atomic charges:   -0.0000000

--------------------------------
MULLIKEN REDUCED ORBITAL CHARGES
--------------------------------
  0 C s       :     3.382905  s :     3.382905
      pz      :     0.982656  p :     3.040495
      px      :     0.959541
      py      :     1.098299
  1 C s       :     3.382905  s :     3.382905
      pz      :     0.982656  p :     3.040495
      px      :     0.959541
      py      :     1.098299
  2 C s       :     3.288339  s :     3.288339
      pz      :     0.992326  p :     2.955105
      px      :     1.037829
      py      :     0.924950
  3 C s       :     3.288339  s :     3.288339
      pz      :     0.992326  p :     2.955105
      px      :     1.037829
      py      :     0.924950
  4 C s       :     3.420201  s :     3.420201
      pz      :     1.097231  p :     3.109035
      px      :     1.078743
      py      :     0.933061
  5 C s       :     3.420201  s :     3.420201
      pz      :     1.097231  p :     3.109035
      px      :     1.078743
      py      :     0.933061
  6 H s       :     0.777417  s :     0.777417
  7 H s       :     0.777417  s :     0.777417
  8 H s       :     0.776805  s :     0.776805
  9 H s       :     0.776805  s :     0.776805
 10 H s       :     0.748144  s :     0.748144
 11 H s       :     0.748144  s :     0.748144
 12 H s       :     0.737687  s :     0.737687
 13 H s       :     0.737687  s :     0.737687
 14 H s       :     0.763868  s :     0.763868
 15 H s       :     0.763868  s :     0.763868


                     *******************************
                     * LOEWDIN POPULATION ANALYSIS *
                     *******************************

----------------------
LOEWDIN ATOMIC CHARGES
----------------------
   0 C :   -0.184342
   1 C :   -0.184342
   2 C :   -0.138124
   3 C :   -0.138124
   4 C :   -0.236953
   5 C :   -0.236953
   6 H :    0.096103
   7 H :    0.096103
   8 H :    0.102559
   9 H :    0.102559
  10 H :    0.136500
  11 H :    0.136500
  12 H :    0.123929
  13 H :    0.123929
  14 H :    0.100328
  15 H :    0.100328

-------------------------------
LOEWDIN REDUCED ORBITAL CHARGES
-------------------------------
  0 C s       :     2.987151  s :     2.987151
      pz      :     1.109465  p :     3.197191
      px      :     0.981596
      py      :     1.106130
  1 C s       :     2.987151  s :     2.987151
      pz      :     1.109465  p :     3.197191
      px      :     0.981596
      py      :     1.106130
  2 C s       :     2.950545  s :     2.950545
      pz      :     1.098104  p :     3.187578
      px      :     1.041910
      py      :     1.047565
  3 C s       :     2.950545  s :     2.950545
      pz      :     1.098104  p :     3.187578
      px      :     1.041910
      py      :     1.047565
  4 C s       :     2.996220  s :     2.996220
      pz      :     1.085870  p :     3.240733
      px      :     1.066558
      py      :     1.088306
  5 C s       :     2.996220  s :     2.996220
      pz      :     1.085870  p :     3.240733
      px      :     1.066558
      py      :     1.088306
  6 H s       :     0.903897  s :     0.903897
  7 H s       :     0.903897  s :     0.903897
  8 H s       :     0.897441  s :     0.897441
  9 H s       :     0.897441  s :     0.897441
 10 H s       :     0.863500  s :     0.863500
 11 H s       :     0.863500  s :     0.863500
 12 H s       :     0.876071  s :     0.876071
 13 H s       :     0.876071  s :     0.876071
 14 H s       :     0.899672  s :     0.899672
 15 H s       :     0.899672  s :     0.899672


                      *****************************
                      * MAYER POPULATION ANALYSIS *
                      *****************************

  NA   - Mulliken gross atomic population
  ZA   - Total nuclear charge
  QA   - Mulliken gross atomic charge
  VA   - Mayer's total valence
  BVA  - Mayer's bonded valence
  FA   - Mayer's free valence

  ATOM       NA         ZA         QA         VA         BVA        FA
  0 C      6.4234     6.0000    -0.4234     3.6802     3.6802    -0.0000
  1 C      6.4234     6.0000    -0.4234     3.6802     3.6802     0.0000
  2 C      6.2434     6.0000    -0.2434     3.7290     3.7290    -0.0000
  3 C      6.2434     6.0000    -0.2434     3.7290     3.7290    -0.0000
  4 C      6.5292     6.0000    -0.5292     3.6323     3.6323     0.0000
  5 C      6.5292     6.0000    -0.5292     3.6323     3.6323     0.0000
  6 H      0.7774     1.0000     0.2226     0.9258     0.9258    -0.0000
  7 H      0.7774     1.0000     0.2226     0.9258     0.9258    -0.0000
  8 H      0.7768     1.0000     0.2232     0.9247     0.9247     0.0000
  9 H      0.7768     1.0000     0.2232     0.9247     0.9247     0.0000
 10 H      0.7481     1.0000     0.2519     0.8863     0.8863    -0.0000
 11 H      0.7481     1.0000     0.2519     0.8863     0.8863    -0.0000
 12 H      0.7377     1.0000     0.2623     0.9104     0.9104     0.0000
 13 H      0.7377     1.0000     0.2623     0.9104     0.9104     0.0000
 14 H      0.7639     1.0000     0.2361     0.9078     0.9078    -0.0000
 15 H      0.7639     1.0000     0.2361     0.9078     0.9078    -0.0000

  Mayer bond orders larger than 0.100000
B(  0-C ,  3-C ) :   1.6416 B(  0-C ,  4-C ) :   0.1576 B(  0-C ,  8-H ) :   0.9407 
B(  0-C , 10-H ) :   0.8972 B(  1-C ,  2-C ) :   1.6416 B(  1-C ,  5-C ) :   0.1576 
B(  1-C ,  9-H ) :   0.9407 B(  1-C , 11-H ) :   0.8972 B(  2-C ,  3-C ) :   1.1501 
B(  2-C ,  6-H ) :   0.9427 B(  3-C ,  7-H ) :   0.9427 B(  4-C ,  5-C ) :   1.5789 
B(  4-C , 12-H ) :   0.9226 B(  4-C , 14-H ) :   0.9230 B(  5-C , 13-H ) :   0.9226 
B(  5-C , 15-H ) :   0.9230 

-------
TIMINGS
-------

Total SCF time: 0 days 0 hours 0 min 1 sec 

Total time                  ....       1.863 sec
Sum of individual times     ....       1.778 sec  ( 95.4%)

Fock matrix formation       ....       1.644 sec  ( 88.3%)
Diagonalization             ....       0.003 sec  (  0.2%)
Density matrix formation    ....       0.000 sec  (  0.0%)
Population analysis         ....       0.001 sec  (  0.1%)
Initial guess               ....       0.064 sec  (  3.4%)
Orbital Transformation      ....       0.000 sec  (  0.0%)
Orbital Orthonormalization  ....       0.000 sec  (  0.0%)
DIIS solution               ....       0.001 sec  (  0.1%)
SOSCF solution              ....       0.003 sec  (  0.2%)

Maximum memory used throughout the entire SCF-calculation: 226.4 MB

-------------------------   --------------------
FINAL SINGLE POINT ENERGY      -231.489641923053
-------------------------   --------------------

------------------------------------------------------------------------------
                         ORCA SCF GRADIENT CALCULATION
------------------------------------------------------------------------------

Gradient of the Hartree-Fock SCF energy:
Hartree-Fock type                ... RHF
Number of operators              ...    1
Number of atoms                  ...   16
Basis set dimensions             ...   74
Integral neglect threshold       ... 1.0e-12
Integral primitive cutoff        ... 1.0e-14
SHARK Integral package           ... ON

Nuc. rep. gradient       (SHARK) ... done (  0.0 sec)
HCore & Overlap gradient (SHARK) ... done (  0.0 sec)
Two-Electron gradient    (SHARK) ... done (  0.5 sec)

------------------
CARTESIAN GRADIENT
------------------

   1   C   :   -0.022167626    0.007963956    0.038576898
   2   C   :   -0.022167626   -0.007963956    0.038576898
   3   C   :   -0.017495899   -0.050214491   -0.009833232
   4   C   :   -0.017495899    0.050214491   -0.009833232
   5   C   :    0.067733068    0.058510728   -0.019280448
   6   C   :    0.067733068   -0.058510728   -0.019280448
   7   H   :    0.004351780   -0.008535418   -0.001633162
   8   H   :    0.004351780    0.008535418   -0.001633162
   9   H   :    0.006200543    0.005282096   -0.011822302
  10   H   :    0.006200543   -0.005282096   -0.011822302
  11   H   :   -0.062605672   -0.029048697    0.019874062
  12   H   :   -0.062605672    0.029048697    0.019874062
  13   H   :    0.000606799   -0.001898792   -0.016726001
  14   H   :    0.000606799    0.001898792   -0.016726001
  15   H   :    0.023377006   -0.002827576    0.000844184
  16   H   :    0.023377006    0.002827576    0.000844184

Difference to translation invariance:
           :   -0.0000000000    0.0000000000    0.0000000000

Difference to rotation invariance:
           :   -0.0000000000   -0.0000002436   -0.0000000000

Norm of the cartesian gradient     ...    0.1982325999
RMS gradient                       ...    0.0286124112
MAX gradient                       ...    0.0677330684

-------
TIMINGS
-------

Total SCF gradient time            ...        0.483 sec

One electron gradient       ....       0.015 sec  (  3.2%)
Two electron gradient       ....       0.457 sec  ( 94.6%)

Maximum memory used throughout the entire SCFGRAD-calculation: 9.0 MB

                            ***************************************
                            *     ORCA property calculations      *
                            ***************************************

                                    ---------------------
                                    Active property flags
                                    ---------------------
   (+) Dipole Moment


------------------------------------------------------------------------------
                       ORCA ELECTRIC PROPERTIES CALCULATION
------------------------------------------------------------------------------

Dipole Moment Calculation                       ... on
Quadrupole Moment Calculation                   ... off
Polarizability Calculation                      ... off
GBWName                                         ... orca.gbw
Electron density                                ... orca.scfp
The origin for moment calculation is the CENTER OF MASS  = (-1.122219, -0.000000 -0.069773)

-------------
DIPOLE MOMENT
-------------
                                X             Y             Z
Electronic contribution:      1.00334       0.00000      -1.93063
Nuclear contribution   :     -1.10689      -0.00000       1.99507
                        -----------------------------------------
Total Dipole Moment    :     -0.10356       0.00000       0.06444
                        -----------------------------------------
Magnitude (a.u.)       :      0.12197
Magnitude (Debye)      :      0.31003



--------------------
Rotational spectrum 
--------------------
 
Rotational constants in cm-1:     0.150294     0.126281     0.078787 
Rotational constants in MHz :  4505.703738  3785.823042  2361.978855 

 Dipole components along the rotational axes: 
x,y,z [a.u.] :     0.115684     0.000000    -0.038653 
x,y,z [Debye]:     0.294046     0.000000    -0.098249 

 

-------------------------------------------------------------------------------
                               ORCA SCF HESSIAN
-------------------------------------------------------------------------------

                   --------- SHARK INITIALIZATION DONE ---------

Hessian of the Hartree-Fock SCF energy:
Hartree-Fock type                                ... RHF
Number of operators                              ...    1
Number of atoms                                  ...   16
Basis set dimensions                             ...   74
Integral neglect threshold                       ... 1.0e-12
Integral primitive cutoff                        ... 1.0e-14

Nuclear repulsion Hessian  (SHARK)               ... done   (      0.0 sec)

----------------------------------------------
Forming right-hand sides of CP-SCF equations     ...
----------------------------------------------
One electron integral derivatives  (SHARK)       ... done   (      0.0 sec)
Transforming the overlap derivative matrices     ... done   (      0.0 sec)
Making the Q(x) pseudodensities                  ... done   (      0.0 sec)
Adding the E*S(x)*S(y) terms to the Hessian      ... done   (      0.0 sec)
Calculating energy weighted overlap derivatives  ... done   (      0.0 sec)
Two electron integral derivatives (SHARK)        ... done   (      0.7 sec)
tr(F(y)Q(x)) contribution to the Hessian         ... done   (      0.0 sec)
Response fock operator R(S(x)) (SHARK)           ... done   (      1.2 sec)
tr(F(y)S(x)) contribution to the Hessian         ... done   (      0.0 sec)
Transforming and finalizing RHSs                 ... done   (      0.0 sec)

----------------------------------------------
Solving the CP-SCF equations                     ...
----------------------------------------------
     CP-SCF ITERATION   0:   9.0911e-02 (   1.3 sec   0/ 48 done)
     CP-SCF ITERATION   1:   4.2097e-02 (   1.3 sec   0/ 48 done)
     CP-SCF ITERATION   2:   1.9573e-02 (   1.3 sec   0/ 48 done)
     CP-SCF ITERATION   3:   5.9769e-03 (   1.3 sec   0/ 48 done)
     CP-SCF ITERATION   4:   1.6044e-03 (   1.2 sec   0/ 48 done)
     CP-SCF ITERATION   5:   5.7371e-04 (   1.2 sec   0/ 48 done)
     CP-SCF ITERATION   6:   2.2773e-04 (   1.2 sec   2/ 48 done)
     CP-SCF ITERATION   7:   1.2191e-04 (   1.2 sec  16/ 48 done)
     CP-SCF ITERATION   8:   3.6217e-05 (   0.9 sec  46/ 48 done)
     CP-SCF ITERATION   9:   9.1006e-06 (   0.2 sec  48/ 48 done)
                    *** THE CP-SCF HAS CONVERGED ***

                                                 ... done   (     11.1 sec)
Forming perturbed density Hessian contributions  ... done   (      0.0 sec)
2nd integral derivative contribs (SHARK)         ... done   (      3.1 sec)
Dipole derivatives                               ... (center of mass: -1.122219, -0.000000 -0.069773)done   (      0.0 sec)

Total SCF Hessian time: 0 days 0 hours 0 min 16 sec 

Writing the Hessian file to the disk             ... done


Maximum memory used throughout the entire SCFHESS-calculation: 54.0 MB

-----------------------
VIBRATIONAL FREQUENCIES
-----------------------

Scaling factor for frequencies =  1.000000000  (already applied!)

   0:         0.00 cm**-1
   1:         0.00 cm**-1
   2:         0.00 cm**-1
   3:         0.00 cm**-1
   4:         0.00 cm**-1
   5:         0.00 cm**-1
   6:      -647.41 cm**-1 ***imaginary mode***
   7:       -76.25 cm**-1 ***imaginary mode***
   8:       271.41 cm**-1
   9:       351.15 cm**-1
  10:       475.30 cm**-1
  11:       545.96 cm**-1
  12:       684.47 cm**-1
  13:       705.40 cm**-1
  14:       801.30 cm**-1
  15:       832.19 cm**-1
  16:       890.25 cm**-1
  17:       931.35 cm**-1
  18:       978.70 cm**-1
  19:      1052.14 cm**-1
  20:      1105.21 cm**-1
  21:      1117.75 cm**-1
  22:      1154.35 cm**-1
  23:      1187.97 cm**-1
  24:      1212.82 cm**-1
  25:      1234.35 cm**-1
  26:      1266.52 cm**-1
  27:      1344.46 cm**-1
  28:      1361.49 cm**-1
  29:      1391.07 cm**-1
  30:      1485.35 cm**-1
  31:      1503.55 cm**-1
  32:      1547.53 cm**-1
  33:      1553.35 cm**-1
  34:      1616.34 cm**-1
  35:      1635.39 cm**-1
  36:      1723.60 cm**-1
  37:      1738.34 cm**-1
  38:      3218.82 cm**-1
  39:      3221.59 cm**-1
  40:      3231.23 cm**-1
  41:      3238.78 cm**-1
  42:      3280.11 cm**-1
  43:      3294.91 cm**-1
  44:      3342.12 cm**-1
  45:      3346.91 cm**-1
  46:      3354.42 cm**-1
  47:      3369.55 cm**-1


------------
NORMAL MODES
------------

These modes are the Cartesian displacements weighted by the diagonal matrix
M(i,i)=1/sqrt(m[i]) where m[i] is the mass of the displaced atom
Thus, these vectors are normalized but *not* orthogonal

                  0          1          2          3          4          5    
      0       0.000000   0.000000   0.000000   0.000000   0.000000   0.000000
      1       0.000000   0.000000   0.000000   0.000000   0.000000   0.000000
      2       0.000000   0.000000   0.000000   0.000000   0.000000   0.000000
      3       0.000000   0.000000   0.000000   0.000000   0.000000   0.000000
      4       0.000000   0.000000   0.000000   0.000000   0.000000   0.000000
      5       0.000000   0.000000   0.000000   0.000000   0.000000   0.000000
      6       0.000000   0.000000   0.000000   0.000000   0.000000   0.000000
      7       0.000000   0.000000   0.000000   0.000000   0.000000   0.000000
      8       0.000000   0.000000   0.000000   0.000000   0.000000   0.000000
      9       0.000000   0.000000   0.000000   0.000000   0.000000   0.000000
     10       0.000000   0.000000   0.000000   0.000000   0.000000   0.000000
     11       0.000000   0.000000   0.000000   0.000000   0.000000   0.000000
     12       0.000000   0.000000   0.000000   0.000000   0.000000   0.000000
     13       0.000000   0.000000   0.000000   0.000000   0.000000   0.000000
     14       0.000000   0.000000   0.000000   0.000000   0.000000   0.000000
     15       0.000000   0.000000   0.000000   0.000000   0.000000   0.000000
     16       0.000000   0.000000   0.000000   0.000000   0.000000   0.000000
     17       0.000000   0.000000   0.000000   0.000000   0.000000   0.000000
     18       0.000000   0.000000   0.000000   0.000000   0.000000   0.000000
     19       0.000000   0.000000   0.000000   0.000000   0.000000   0.000000
     20       0.000000   0.000000   0.000000   0.000000   0.000000   0.000000
     21       0.000000   0.000000   0.000000   0.000000   0.000000   0.000000
     22       0.000000   0.000000   0.000000   0.000000   0.000000   0.000000
     23       0.000000   0.000000   0.000000   0.000000   0.000000   0.000000
     24       0.000000   0.000000   0.000000   0.000000   0.000000   0.000000
     25       0.000000   0.000000   0.000000   0.000000   0.000000   0.000000
     26       0.000000   0.000000   0.000000   0.000000   0.000000   0.000000
     27       0.000000   0.000000   0.000000   0.000000   0.000000   0.000000
     28       0.000000   0.000000   0.000000   0.000000   0.000000   0.000000
     29       0.000000   0.000000   0.000000   0.000000   0.000000   0.000000
     30       0.000000   0.000000   0.000000   0.000000   0.000000   0.000000
     31       0.000000   0.000000   0.000000   0.000000   0.000000   0.000000
     32       0.000000   0.000000   0.000000   0.000000   0.000000   0.000000
     33       0.000000   0.000000   0.000000   0.000000   0.000000   0.000000
     34       0.000000   0.000000   0.000000   0.000000   0.000000   0.000000
     35       0.000000   0.000000   0.000000   0.000000   0.000000   0.000000
     36       0.000000   0.000000   0.000000   0.000000   0.000000   0.000000
     37       0.000000   0.000000   0.000000   0.000000   0.000000   0.000000
     38       0.000000   0.000000   0.000000   0.000000   0.000000   0.000000
     39       0.000000   0.000000   0.000000   0.000000   0.000000   0.000000
     40       0.000000   0.000000   0.000000   0.000000   0.000000   0.000000
     41       0.000000   0.000000   0.000000   0.000000   0.000000   0.000000
     42       0.000000   0.000000   0.000000   0.000000   0.000000   0.000000
     43       0.000000   0.000000   0.000000   0.000000   0.000000   0.000000
     44       0.000000   0.000000   0.000000   0.000000   0.000000   0.000000
     45       0.000000   0.000000   0.000000   0.000000   0.000000   0.000000
     46       0.000000   0.000000   0.000000   0.000000   0.000000   0.000000
     47       0.000000   0.000000   0.000000   0.000000   0.000000   0.000000
                  6          7          8          9         10         11    
      0      -0.152040  -0.035678  -0.131533   0.199251   0.063407   0.061259
      1      -0.101074  -0.090971  -0.080497   0.016978  -0.258342  -0.000384
      2       0.123791   0.115445   0.020432   0.071728   0.027866  -0.062414
      3      -0.152040   0.035678   0.131533   0.199251   0.063407  -0.061259
      4       0.101074  -0.090971  -0.080497  -0.016978   0.258342  -0.000384
      5       0.123791  -0.115445  -0.020432   0.071728   0.027866   0.062414
      6      -0.029671   0.033050   0.118841  -0.202341   0.002035   0.067527
      7       0.102869   0.006696  -0.040329  -0.029993   0.002599   0.110686
      8       0.007991  -0.054653   0.001036   0.079960  -0.100807   0.097886
      9      -0.029671  -0.033050  -0.118841  -0.202341   0.002035  -0.067527
     10      -0.102869   0.006696  -0.040329   0.029993  -0.002599   0.110686
     11       0.007991   0.054653  -0.001036   0.079960  -0.100807  -0.097886
     12       0.193734  -0.051246   0.085854  -0.011964  -0.087247   0.162147
     13       0.091971   0.084525   0.121066  -0.017731   0.009389  -0.084919
     14      -0.165720  -0.161201   0.103697  -0.138214   0.055662  -0.100702
     15       0.193734   0.051246  -0.085854  -0.011964  -0.087247  -0.162147
     16      -0.091971   0.084525   0.121066   0.017731  -0.009389  -0.084919
     17      -0.165720   0.161201  -0.103697  -0.138214   0.055662   0.100702
     18      -0.127977   0.120393   0.283951  -0.367006   0.063906   0.260601
     19       0.013212   0.086099  -0.013794  -0.016517  -0.128079   0.078354
     20       0.055201  -0.097508  -0.003472   0.058723  -0.011430   0.132606
     21      -0.127977  -0.120393  -0.283951  -0.367006   0.063906  -0.260601
     22      -0.013212   0.086099  -0.013794   0.016517   0.128079   0.078354
     23       0.055201   0.097508   0.003472   0.058723  -0.011430  -0.132606
     24      -0.179690  -0.050267  -0.233498   0.375720   0.256595  -0.031866
     25      -0.101549  -0.092003  -0.076747   0.006633  -0.281722  -0.001163
     26       0.147098   0.192983   0.070807   0.063896   0.276147   0.149834
     27      -0.179690   0.050267   0.233498   0.375720   0.256595   0.031866
     28       0.101549  -0.092003  -0.076747  -0.006633   0.281722  -0.001163
     29       0.147098  -0.192983  -0.070807   0.063896   0.276147  -0.149834
     30       0.414204   0.169150   0.193115   0.110252  -0.016132   0.257462
     31      -0.146354  -0.162499  -0.145713   0.014963  -0.385928  -0.232971
     32       0.161465   0.090209  -0.002525   0.074052  -0.079116  -0.185868
     33       0.414204  -0.169150  -0.193115   0.110252  -0.016132  -0.257462
     34       0.146354  -0.162499  -0.145713  -0.014963   0.385928  -0.232971
     35       0.161465  -0.090209   0.002525   0.074052  -0.079116   0.185868
     36      -0.235425  -0.119323   0.035016   0.119910  -0.072492   0.205201
     37       0.001144  -0.144388   0.289943  -0.008989   0.000957  -0.095405
     38       0.077309  -0.267167   0.253215  -0.221124   0.036194  -0.132338
     39      -0.235425   0.119323  -0.035016   0.119910  -0.072492  -0.205201
     40      -0.001144  -0.144388   0.289943   0.008989  -0.000957  -0.095405
     41       0.077309   0.267167  -0.253215  -0.221124   0.036194   0.132338
     42      -0.014378  -0.161878   0.209735  -0.059499   0.027933   0.237280
     43       0.022678   0.309815  -0.056545   0.009047   0.048448  -0.051265
     44      -0.036679  -0.256486   0.160889  -0.136099  -0.015915  -0.156364
     45      -0.014378   0.161878  -0.209735  -0.059499   0.027933  -0.237280
     46      -0.022678   0.309815  -0.056545  -0.009047  -0.048448  -0.051265
     47      -0.036679   0.256486  -0.160889  -0.136099  -0.015915   0.156364
                 12         13         14         15         16         17    
      0      -0.135771   0.097996  -0.054479  -0.039814   0.032923  -0.068397
      1      -0.071712  -0.074097   0.051665   0.040452   0.037066   0.030836
      2      -0.037223  -0.046464   0.060478  -0.001838  -0.001418   0.007470
      3       0.135771  -0.097996  -0.054479  -0.039814   0.032923   0.068397
      4      -0.071712  -0.074097  -0.051665  -0.040452  -0.037066   0.030836
      5       0.037223   0.046464   0.060478  -0.001838  -0.001418  -0.007470
      6      -0.133327   0.131609   0.009021  -0.048274   0.043702   0.110064
      7       0.074882   0.066722  -0.267018  -0.014001  -0.014295  -0.018433
      8       0.087863   0.100986  -0.059190   0.000939   0.001861  -0.030576
      9       0.133327  -0.131609   0.009021  -0.048274   0.043702  -0.110064
     10       0.074882   0.066722   0.267018   0.014001   0.014295  -0.018433
     11      -0.087863  -0.100986  -0.059190   0.000939   0.001861   0.030576
     12      -0.000187  -0.180117   0.045548   0.018372  -0.054606   0.061059
     13       0.020689   0.030382  -0.016098   0.019051   0.012726  -0.010531
     14       0.002308   0.086316  -0.020258  -0.010556  -0.015854  -0.036896
     15       0.000187   0.180117   0.045548   0.018372  -0.054606  -0.061059
     16       0.020689   0.030382   0.016098  -0.019051  -0.012726  -0.010531
     17      -0.002308  -0.086316  -0.020258  -0.010556  -0.015854   0.036896
     18      -0.479806   0.159998  -0.044880   0.473537  -0.235490  -0.357162
     19       0.033563   0.022415  -0.381752   0.032532   0.003489  -0.022878
     20       0.083597   0.129628   0.000505   0.014485  -0.033191  -0.066440
     21       0.479806  -0.159998  -0.044880   0.473537  -0.235490   0.357162
     22       0.033563   0.022415   0.381752  -0.032532  -0.003489  -0.022878
     23      -0.083597  -0.129628   0.000505   0.014485  -0.033191   0.066440
     24      -0.013653   0.406423  -0.143783   0.473041   0.031383   0.582364
     25      -0.092156  -0.103175   0.050109   0.004127   0.036841  -0.014031
     26       0.246719   0.180249   0.428486   0.044093   0.020335  -0.013461
     27       0.013653  -0.406423  -0.143783   0.473041   0.031383  -0.582364
     28      -0.092156  -0.103175  -0.050109  -0.004127  -0.036841  -0.014031
     29      -0.246719  -0.180249   0.428486   0.044093   0.020335   0.013461
     30      -0.129097  -0.146415   0.029983  -0.011891   0.163751  -0.034717
     31      -0.277087  -0.252486  -0.169341  -0.012594  -0.014947   0.039849
     32      -0.195382  -0.188281  -0.085892  -0.041641  -0.030891   0.008693
     33       0.129097   0.146415   0.029983  -0.011891   0.163751   0.034717
     34      -0.277087  -0.252486   0.169341   0.012594   0.014947   0.039849
     35       0.195382   0.188281  -0.085892  -0.041641  -0.030891  -0.008693
     36      -0.010769  -0.156504   0.090008  -0.151819  -0.469792  -0.001637
     37       0.021658   0.003113  -0.041000   0.028835   0.086499  -0.002383
     38       0.006475   0.049515  -0.064812   0.115458   0.316569   0.016831
     39       0.010769   0.156504   0.090008  -0.151819  -0.469792   0.001637
     40       0.021658   0.003113   0.041000  -0.028835  -0.086499  -0.002383
     41      -0.006475  -0.049515  -0.064812   0.115458   0.316569  -0.016831
     42       0.045351  -0.083283   0.067602   0.047841   0.247774  -0.003635
     43       0.029728   0.055995   0.017547  -0.025512  -0.083439  -0.022856
     44      -0.020940   0.032838  -0.052255   0.004106  -0.089180  -0.001529
     45      -0.045351   0.083283   0.067602   0.047841   0.247774   0.003635
     46       0.029728   0.055995  -0.017547   0.025512   0.083439  -0.022856
     47       0.020940  -0.032838  -0.052255   0.004106  -0.089180   0.001529
                 18         19         20         21         22         23    
      0       0.001303  -0.039722   0.060490  -0.059548   0.056353  -0.050145
      1      -0.018510   0.025673  -0.031457  -0.011388  -0.026195  -0.048799
      2       0.005324  -0.006473   0.005575  -0.040124   0.000059  -0.000009
      3       0.001303   0.039722   0.060490  -0.059548  -0.056353  -0.050145
      4       0.018510   0.025673   0.031457   0.011388  -0.026195   0.048799
      5       0.005324   0.006473   0.005575  -0.040124  -0.000059  -0.000009
      6      -0.010014  -0.083245  -0.062624   0.006147   0.049083   0.020892
      7      -0.003609  -0.004602  -0.010599   0.022852   0.020701  -0.027793
      8      -0.002434   0.006993   0.013978   0.081552   0.033259   0.011547
      9      -0.010014   0.083245  -0.062624   0.006147  -0.049083   0.020892
     10       0.003609  -0.004602   0.010599  -0.022852   0.020701   0.027793
     11      -0.002434  -0.006993   0.013978   0.081552  -0.033259   0.011547
     12      -0.003896  -0.014324   0.001780  -0.010731   0.016236  -0.005341
     13      -0.014623  -0.010048  -0.041016  -0.085098   0.005123  -0.075336
     14      -0.034897  -0.008904  -0.016043  -0.008710  -0.031606  -0.000808
     15      -0.003896   0.014324   0.001780  -0.010731  -0.016236  -0.005341
     16       0.014623  -0.010048   0.041016   0.085098   0.005123   0.075336
     17      -0.034897   0.008904  -0.016043  -0.008710   0.031606  -0.000808
     18       0.032898   0.275933   0.417302  -0.033820  -0.352410  -0.073276
     19      -0.026205  -0.027232  -0.065804   0.206207   0.039772  -0.347990
     20       0.015132   0.050294   0.089187  -0.025363  -0.011044   0.200305
     21       0.032898  -0.275933   0.417302  -0.033820   0.352410  -0.073276
     22       0.026205  -0.027232   0.065804  -0.206207   0.039772   0.347990
     23       0.015132  -0.050294   0.089187  -0.025363   0.011044   0.200305
     24      -0.058362   0.315816  -0.453016   0.046642  -0.254859   0.211192
     25      -0.014292   0.000962   0.008209  -0.033977   0.000043  -0.052717
     26       0.002051  -0.007476  -0.098776   0.185125  -0.104752  -0.406712
     27      -0.058362  -0.315816  -0.453016   0.046642   0.254859   0.211192
     28       0.014292   0.000962  -0.008209   0.033977   0.000043   0.052717
     29       0.002051   0.007476  -0.098776   0.185125   0.104752  -0.406712
     30      -0.068255   0.376100   0.006614   0.090325   0.169657   0.169066
     31       0.012242  -0.002277   0.040665  -0.187472   0.065753   0.186456
     32       0.012954   0.006719   0.032377  -0.183929   0.076673   0.155531
     33      -0.068255  -0.376100   0.006614   0.090325  -0.169657   0.169066
     34      -0.012242  -0.002277  -0.040665   0.187472   0.065753  -0.186456
     35       0.012954  -0.006719   0.032377  -0.183929  -0.076673   0.155531
     36       0.181404  -0.342645  -0.150772   0.216154  -0.422083   0.021882
     37       0.418344  -0.043355  -0.071522  -0.018092  -0.029439  -0.080480
     38       0.134305   0.197645   0.069807  -0.119500   0.251742  -0.019734
     39       0.181404   0.342645  -0.150772   0.216154   0.422083   0.021882
     40      -0.418344  -0.043355   0.071522   0.018092  -0.029439   0.080480
     41       0.134305  -0.197645   0.069807  -0.119500  -0.251742  -0.019734
     42       0.062536   0.084390   0.184080   0.444884  -0.032903   0.083346
     43      -0.458846  -0.059454   0.015976  -0.034185  -0.071706  -0.059718
     44       0.216946  -0.024958  -0.134415  -0.246183   0.038443  -0.057234
     45       0.062536  -0.084390   0.184080   0.444884   0.032903   0.083346
     46       0.458846  -0.059454  -0.015976   0.034185  -0.071706   0.059718
     47       0.216946   0.024958  -0.134415  -0.246183  -0.038443  -0.057234
                 24         25         26         27         28         29    
      0       0.009494   0.022918   0.002241   0.009334   0.002579  -0.007920
      1       0.011717   0.098062  -0.015338   0.002907   0.036030  -0.010279
      2       0.012644   0.028116  -0.007810  -0.053155   0.060025   0.036867
      3      -0.009494  -0.022918   0.002241  -0.009334   0.002579   0.007920
      4       0.011717   0.098062   0.015338   0.002907  -0.036030  -0.010279
      5      -0.012644  -0.028116  -0.007810   0.053155   0.060025  -0.036867
      6      -0.014979   0.022727   0.006970  -0.000157  -0.004772   0.001578
      7      -0.012697  -0.059661   0.006300  -0.015491   0.017673   0.014830
      8       0.007068  -0.026395   0.004661  -0.078073  -0.088818   0.035218
      9       0.014979  -0.022727   0.006970   0.000157  -0.004772  -0.001578
     10      -0.012697  -0.059661  -0.006300  -0.015491  -0.017673   0.014830
     11      -0.007068   0.026395   0.004661   0.078073  -0.088818  -0.035218
     12       0.074890  -0.028162   0.060054  -0.025508  -0.053118  -0.072707
     13       0.018613  -0.002095  -0.153223  -0.005584  -0.065482  -0.005203
     14      -0.051410   0.011346  -0.023147  -0.046329   0.026516  -0.104934
     15      -0.074890   0.028162   0.060054   0.025508  -0.053118   0.072707
     16       0.018613  -0.002095   0.153223  -0.005584   0.065482  -0.005203
     17       0.051410  -0.011346  -0.023147   0.046329   0.026516   0.104934
     18       0.217139  -0.154711  -0.084952   0.048440   0.122690   0.001240
     19      -0.105071  -0.349800   0.106561   0.251181   0.203492  -0.145210
     20       0.083390   0.135127  -0.062764  -0.239497  -0.201554   0.134106
     21      -0.217139   0.154711  -0.084952  -0.048440   0.122690  -0.001240
     22      -0.105071  -0.349800  -0.106561   0.251181  -0.203492  -0.145210
     23      -0.083390  -0.135127  -0.062764   0.239497  -0.201554  -0.134106
     24       0.020419  -0.139165   0.041420  -0.034690  -0.018665   0.011994
     25       0.005038   0.097233  -0.025280  -0.000359   0.045182  -0.007015
     26       0.197320   0.420176   0.151667  -0.047533   0.086463   0.006573
     27      -0.020419   0.139165   0.041420   0.034690  -0.018665  -0.011994
     28       0.005038   0.097233   0.025280  -0.000359  -0.045182  -0.007015
     29      -0.197320  -0.420176   0.151667   0.047533   0.086463  -0.006573
     30      -0.432465   0.104568  -0.267359  -0.256342   0.536095   0.011183
     31      -0.039022  -0.192914  -0.010163  -0.143224   0.085634   0.114032
     32      -0.048449  -0.148864  -0.034891  -0.207832   0.167047   0.113667
     33       0.432465  -0.104568  -0.267359   0.256342   0.536095  -0.011183
     34      -0.039022  -0.192914   0.010163  -0.143224  -0.085634   0.114032
     35       0.048449   0.148864  -0.034891   0.207832   0.167047  -0.113667
     36      -0.232506  -0.047118  -0.273225  -0.141808   0.090853   0.171270
     37       0.003739  -0.016436  -0.344773   0.158956  -0.088394   0.453340
     38       0.155378   0.015476   0.100757   0.146451  -0.087682   0.032769
     39       0.232506   0.047118  -0.273225   0.141808   0.090853  -0.171270
     40       0.003739  -0.016436   0.344773   0.158956   0.088394   0.453340
     41      -0.155378  -0.015476   0.100757  -0.146451  -0.087682  -0.032769
     42      -0.285995   0.173358  -0.241233   0.361028  -0.071909   0.089196
     43      -0.074794   0.029310  -0.253554  -0.050070  -0.128812  -0.407377
     44       0.171929  -0.097429   0.158567  -0.180455   0.062847   0.074111
     45       0.285995  -0.173358  -0.241233  -0.361028  -0.071909  -0.089196
     46      -0.074794   0.029310   0.253554  -0.050070   0.128812  -0.407377
     47      -0.171929   0.097429   0.158567   0.180455   0.062847  -0.074111
                 30         31         32         33         34         35    
      0       0.006114  -0.014543   0.006541  -0.001494  -0.004090  -0.003754
      1       0.027288  -0.058511  -0.035267  -0.003134  -0.009570  -0.014432
      2      -0.066613   0.048672  -0.105306   0.000640   0.021020  -0.042065
      3      -0.006114  -0.014543   0.006541   0.001494   0.004090  -0.003754
      4       0.027288   0.058511   0.035267  -0.003134  -0.009570   0.014432
      5       0.066613   0.048672  -0.105306  -0.000640  -0.021020  -0.042065
      6      -0.000063   0.006048  -0.004503   0.000980   0.002589   0.000999
      7      -0.054967  -0.103122  -0.075123  -0.036830  -0.008760  -0.001069
      8       0.001420   0.009981   0.105757   0.068513   0.034233   0.013386
      9       0.000063   0.006048  -0.004503  -0.000980  -0.002589   0.000999
     10      -0.054967   0.103122   0.075123  -0.036830  -0.008760   0.001069
     11      -0.001420   0.009981   0.105757  -0.068513  -0.034233   0.013386
     12      -0.016366   0.016220  -0.004567   0.006045  -0.001242   0.012195
     13       0.022108   0.002395   0.033343  -0.040685   0.053003  -0.079411
     14      -0.015853  -0.010107   0.004564   0.009811   0.006948  -0.005791
     15       0.016366   0.016220  -0.004567  -0.006045   0.001242   0.012195
     16       0.022108  -0.002395  -0.033343  -0.040685   0.053003   0.079411
     17       0.015853  -0.010107   0.004564  -0.009811  -0.006948  -0.005791
     18      -0.037852  -0.023618   0.062295   0.022621   0.021707   0.007090
     19       0.328052   0.446599   0.092878   0.187364   0.042591  -0.001063
     20      -0.232376  -0.331765   0.023768  -0.058186   0.008142   0.018378
     21       0.037852  -0.023618   0.062295  -0.022621  -0.021707   0.007090
     22       0.328052  -0.446599  -0.092878   0.187364   0.042591   0.001063
     23       0.232376  -0.331765   0.023768   0.058186  -0.008142   0.018378
     24      -0.025470   0.029768  -0.069332   0.017038   0.016607   0.003007
     25       0.017251  -0.048915  -0.045970  -0.004856  -0.009083  -0.020580
     26       0.290261  -0.331603  -0.118581   0.342512   0.104678   0.190297
     27       0.025470   0.029768  -0.069332  -0.017038  -0.016607   0.003007
     28       0.017251   0.048915   0.045970  -0.004856  -0.009083   0.020580
     29      -0.290261  -0.331603  -0.118581  -0.342512  -0.104678   0.190297
     30       0.223420  -0.142174   0.427793  -0.063797  -0.151712   0.086631
     31      -0.028954   0.065033  -0.235591   0.336608   0.203797   0.145411
     32      -0.059606   0.103508  -0.171926   0.217636   0.116868   0.088098
     33      -0.223420  -0.142174   0.427793   0.063797   0.151712   0.086631
     34      -0.028954  -0.065033   0.235591   0.336608   0.203797  -0.145411
     35       0.059606   0.103508  -0.171926  -0.217636  -0.116868   0.088098
     36       0.074235  -0.003607  -0.070857   0.009444  -0.099118   0.047381
     37      -0.014020   0.076540  -0.050822   0.168088  -0.372901   0.363001
     38      -0.104378   0.054882  -0.013141   0.147275  -0.204658   0.267736
     39      -0.074235  -0.003607  -0.070857  -0.009444   0.099118   0.047381
     40      -0.014020  -0.076540   0.050822   0.168088  -0.372901  -0.363001
     41       0.104378   0.054882  -0.013141  -0.147275   0.204658   0.267736
     42      -0.245671   0.047583  -0.319757   0.066783   0.365052  -0.256586
     43      -0.235943   0.088522  -0.094998   0.273796  -0.277545   0.350306
     44       0.235730  -0.073471   0.220125  -0.203273   0.049006  -0.153771
     45       0.245671   0.047583  -0.319757  -0.066783  -0.365052  -0.256586
     46      -0.235943  -0.088522   0.094998   0.273796  -0.277545  -0.350306
     47      -0.235730  -0.073471   0.220125   0.203273  -0.049006  -0.153771
                 36         37         38         39         40         41    
      0      -0.001099   0.003636  -0.001819  -0.000753  -0.000394  -0.001706
      1       0.090932   0.051542  -0.012938  -0.006568  -0.013190  -0.015479
      2       0.162730   0.074096  -0.039338  -0.016964  -0.028305  -0.025173
      3       0.001099   0.003636   0.001819   0.000753  -0.000394  -0.001706
      4       0.090932  -0.051542  -0.012938  -0.006568   0.013190   0.015479
      5      -0.162730   0.074096   0.039338   0.016964  -0.028305  -0.025173
      6      -0.005379  -0.000261  -0.001184  -0.000735   0.001179   0.000590
      7      -0.100773   0.030420   0.003171   0.001830  -0.003703  -0.002657
      8       0.167273  -0.029611  -0.001882  -0.000209  -0.001465  -0.001736
      9       0.005379  -0.000261   0.001184   0.000735   0.001179   0.000590
     10      -0.100773  -0.030420   0.003171   0.001830   0.003703   0.002657
     11      -0.167273  -0.029611   0.001882   0.000209  -0.001465  -0.001736
     12      -0.000747   0.005265  -0.000856  -0.000289  -0.002605   0.000111
     13      -0.001806  -0.057423  -0.014078   0.037351   0.030099  -0.033213
     14       0.000041   0.000314  -0.005002   0.014502   0.007799  -0.011807
     15       0.000747   0.005265   0.000856   0.000289  -0.002605   0.000111
     16      -0.001806   0.057423  -0.014078   0.037351  -0.030099   0.033213
     17      -0.000041   0.000314   0.005002  -0.014502   0.007799  -0.011807
     18      -0.003891   0.000820  -0.000894   0.000523  -0.001949  -0.002008
     19       0.359148  -0.061960  -0.014274  -0.009593   0.027851   0.025840
     20      -0.078449   0.018872  -0.021817  -0.013398   0.046983   0.044478
     21       0.003891   0.000820   0.000894  -0.000523  -0.001949  -0.002008
     22       0.359148   0.061960  -0.014274  -0.009593  -0.027851  -0.025840
     23       0.078449   0.018872   0.021817   0.013398   0.046983   0.044478
     24       0.016837  -0.012409   0.033370   0.013119   0.024773   0.027298
     25       0.124397   0.062370   0.398183   0.172831   0.330601   0.354475
     26      -0.332642  -0.331498   0.009638   0.005018   0.007829   0.006595
     27      -0.016837  -0.012409  -0.033370  -0.013119   0.024773   0.027298
     28       0.124397  -0.062370   0.398183   0.172831  -0.330601  -0.354475
     29       0.332642  -0.331498  -0.009638  -0.005018   0.007829   0.006595
     30      -0.080273  -0.002956  -0.046451  -0.026411  -0.038926  -0.033673
     31      -0.376045  -0.482317  -0.278322  -0.115460  -0.205853  -0.198388
     32      -0.126766  -0.275419   0.424344   0.177111   0.303376   0.283587
     33       0.080273  -0.002956   0.046451   0.026411  -0.038926  -0.033673
     34      -0.376045   0.482317  -0.278322  -0.115460   0.205853   0.198388
     35       0.126766  -0.275419  -0.424344  -0.177111   0.303376   0.283587
     36       0.016609   0.043877  -0.086008   0.178817   0.155594  -0.139888
     37       0.022696   0.125031   0.075032  -0.171615  -0.147779   0.127548
     38       0.006283   0.104226  -0.118368   0.265393   0.222392  -0.199946
     39      -0.016609   0.043877   0.086008  -0.178817   0.155594  -0.139888
     40       0.022696  -0.125031   0.075032  -0.171615   0.147779  -0.127548
     41      -0.006283   0.104226   0.118368  -0.265393   0.222392  -0.199946
     42       0.019477  -0.132284   0.101772  -0.178144  -0.117803   0.160251
     43       0.008595   0.108026   0.103502  -0.264768  -0.195318   0.199224
     44      -0.017551  -0.049978   0.172652  -0.434310  -0.318771   0.326620
     45      -0.019477  -0.132284  -0.101772   0.178144  -0.117803   0.160251
     46       0.008595  -0.108026   0.103502  -0.264768   0.195318  -0.199224
     47       0.017551  -0.049978  -0.172652   0.434310  -0.318771   0.326620
                 42         43         44         45         46         47    
      0      -0.000733  -0.000801   0.002337   0.003212   0.004546   0.001047
      1      -0.011297  -0.009280   0.038425   0.051019   0.060734   0.016002
      2       0.009828   0.013264  -0.015126  -0.021069  -0.027449  -0.009022
      3       0.000733  -0.000801  -0.002337  -0.003212   0.004546   0.001047
      4      -0.011297   0.009280   0.038425   0.051019  -0.060734  -0.016002
      5      -0.009828   0.013264   0.015126   0.021069  -0.027449  -0.009022
      6      -0.004016   0.003914  -0.000364  -0.001811   0.001424   0.000169
      7       0.027735  -0.029603   0.004004   0.005107  -0.007263  -0.001947
      8       0.053004  -0.052027   0.008239   0.009377  -0.011565  -0.003052
      9       0.004016   0.003914   0.000364   0.001811   0.001424   0.000169
     10       0.027735   0.029603   0.004004   0.005107   0.007263   0.001947
     11      -0.053004  -0.052027  -0.008239  -0.009377  -0.011565  -0.003052
     12      -0.000099   0.000473   0.028632  -0.022949  -0.010634   0.035364
     13      -0.000643   0.000823  -0.005814   0.005389  -0.001947  -0.008088
     14      -0.000888   0.000960   0.048861  -0.036093  -0.017065   0.058621
     15       0.000099   0.000473  -0.028632   0.022949  -0.010634   0.035364
     16      -0.000643  -0.000823  -0.005814   0.005389   0.001947   0.008088
     17       0.000888   0.000960  -0.048861   0.036093  -0.017065   0.058621
     18       0.048890  -0.049413   0.006660   0.005982  -0.007084  -0.001852
     19      -0.351964   0.357886  -0.047399  -0.056579   0.072989   0.018813
     20      -0.589507   0.581966  -0.081730  -0.100391   0.124214   0.031063
     21      -0.048890  -0.049413  -0.006660  -0.005982  -0.007084  -0.001852
     22      -0.351964  -0.357886  -0.047399  -0.056579  -0.072989  -0.018813
     23       0.589507   0.581966   0.081730   0.100391   0.124214   0.031063
     24       0.006022   0.003246  -0.020101  -0.026540  -0.030667  -0.006480
     25       0.099750   0.056678  -0.330849  -0.433198  -0.491380  -0.117034
     26       0.001288   0.000065  -0.010760  -0.014570  -0.018316  -0.004004
     27      -0.006022   0.003246   0.020101   0.026540  -0.030667  -0.006480
     28       0.099750  -0.056678  -0.330849  -0.433198   0.491380   0.117034
     29      -0.001288   0.000065   0.010760   0.014570  -0.018316  -0.004004
     30       0.009159   0.014630  -0.028576  -0.029703  -0.044719  -0.022975
     31       0.058943   0.085592  -0.127842  -0.181801  -0.237732  -0.080495
     32      -0.093388  -0.126701   0.204751   0.285599   0.368581   0.124235
     33      -0.009159   0.014630   0.028576   0.029703  -0.044719  -0.022975
     34       0.058943  -0.085592  -0.127842  -0.181801   0.237732   0.080495
     35       0.093388  -0.126701  -0.204751  -0.285599   0.368581   0.124235
     36       0.002555  -0.001906  -0.238189   0.175840   0.070601  -0.276079
     37      -0.000767   0.002764   0.225471  -0.171493  -0.070860   0.270886
     38       0.001454  -0.002768  -0.334280   0.253358   0.101234  -0.398419
     39      -0.002555  -0.001906   0.238189  -0.175840   0.070601  -0.276079
     40      -0.000767  -0.002764   0.225471  -0.171493   0.070860  -0.270886
     41      -0.001454  -0.002768   0.334280  -0.253358   0.101234  -0.398419
     42      -0.002092  -0.009289  -0.094570   0.095015   0.067439  -0.128487
     43       0.005837  -0.001667  -0.155675   0.110081   0.060618  -0.194854
     44       0.008779  -0.002115  -0.253844   0.178630   0.092516  -0.307512
     45       0.002092  -0.009289   0.094570  -0.095015   0.067439  -0.128487
     46       0.005837   0.001667  -0.155675   0.110081  -0.060618   0.194854
     47      -0.008779  -0.002115   0.253844  -0.178630   0.092516  -0.307512


-----------
IR SPECTRUM
-----------

 Mode   freq       eps      Int      T**2         TX        TY        TZ
       cm**-1   L/(mol*cm) km/mol    a.u.
----------------------------------------------------------------------------
  8:    271.41   0.000604    3.05  0.000694  ( 0.000000  0.026348 -0.000000)
  9:    351.15   0.000961    4.86  0.000854  ( 0.026931  0.000000 -0.011340)
 10:    475.30   0.000889    4.49  0.000584  ( 0.023349 -0.000000 -0.006199)
 11:    545.96   0.000283    1.43  0.000162  (-0.000000  0.012723 -0.000000)
 12:    684.47   0.000273    1.38  0.000125  (-0.000000  0.011162 -0.000000)
 13:    705.40   0.000478    2.42  0.000211  (-0.000000 -0.014540  0.000000)
 14:    801.30   0.000108    0.55  0.000042  ( 0.002472 -0.000000  0.005999)
 15:    832.19   0.018297   92.46  0.006861  ( 0.081966  0.000000  0.011941)
 16:    890.25   0.001348    6.81  0.000472  (-0.020978  0.000000 -0.005682)
 17:    931.35   0.001931    9.76  0.000647  (-0.000000  0.025439 -0.000000)
 18:    978.70   0.000464    2.35  0.000148  (-0.007773  0.000000  0.009357)
 19:   1052.14   0.000098    0.49  0.000029  (-0.000000 -0.005388  0.000000)
 20:   1105.21   0.000697    3.52  0.000197  ( 0.010148  0.000000 -0.009683)
 21:   1117.75   0.020303  102.60  0.005668  ( 0.066071  0.000000 -0.036097)
 22:   1154.35   0.000071    0.36  0.000019  (-0.000000  0.004372  0.000000)
 23:   1187.97   0.003189   16.11  0.000838  ( 0.028887  0.000000 -0.001781)
 24:   1212.82   0.000056    0.28  0.000014  ( 0.000000  0.003781 -0.000000)
 25:   1234.35   0.000299    1.51  0.000076  ( 0.000000 -0.008695 -0.000000)
 26:   1266.52   0.015135   76.49  0.003729  (-0.057025 -0.000000  0.021851)
 27:   1344.46   0.000007    0.04  0.000002  (-0.000000  0.001307  0.000000)
 28:   1361.49   0.009717   49.10  0.002227  ( 0.046662  0.000000  0.007059)
 29:   1391.07   0.000006    0.03  0.000001  ( 0.000000 -0.001192  0.000000)
 30:   1485.35   0.000066    0.33  0.000014  (-0.000000 -0.003719 -0.000000)
 31:   1503.55   0.003346   16.91  0.000694  (-0.011765  0.000000 -0.023579)
 32:   1547.53   0.002412   12.19  0.000486  ( 0.022050 -0.000000  0.000328)
 33:   1553.35   0.000685    3.46  0.000138  ( 0.000000  0.011730  0.000000)
 34:   1616.34   0.000887    4.48  0.000171  ( 0.000000 -0.013088  0.000000)
 35:   1635.39   0.000973    4.92  0.000186  ( 0.008338  0.000000  0.010775)
 36:   1723.60   0.000282    1.42  0.000051  (-0.000000  0.007144  0.000000)
 37:   1738.34   0.001955    9.88  0.000351  (-0.003456  0.000000 -0.018412)
 38:   3218.82   0.000135    0.68  0.000013  ( 0.000000 -0.003622  0.000000)
 39:   3221.59   0.000419    2.12  0.000041  (-0.000000  0.006372 -0.000000)
 40:   3231.23   0.000937    4.73  0.000090  (-0.009451 -0.000000 -0.001059)
 41:   3238.78   0.002590   13.09  0.000250  (-0.011381 -0.000000 -0.010954)
 42:   3280.11   0.000838    4.24  0.000080  ( 0.000000  0.008931 -0.000000)
 43:   3294.91   0.002981   15.07  0.000282  ( 0.003958 -0.000000 -0.016330)
 44:   3342.12   0.003621   18.30  0.000338  (-0.000000  0.018388 -0.000000)
 45:   3346.91   0.002130   10.76  0.000199  (-0.000000  0.014091 -0.000000)
 46:   3354.42   0.001192    6.02  0.000111  (-0.009794 -0.000000 -0.003869)
 47:   3369.55   0.000256    1.29  0.000024  (-0.003075 -0.000000  0.003778)

* The epsilon (eps) is given for a Dirac delta lineshape.
** The dipole moment derivative (T) already includes vibrational overlap.

The first frequency considered to be a vibration is 8
The total number of vibrations considered is 40


--------------------------
THERMOCHEMISTRY AT 298.15K
--------------------------

Temperature         ... 298.15 K
Pressure            ... 1.00 atm
Total Mass          ... 82.15 AMU

Throughout the following assumptions are being made:
  (1) The electronic state is orbitally nondegenerate
  (2) There are no thermally accessible electronically excited states
  (3) Hindered rotations indicated by low frequency modes are not
      treated as such but are treated as vibrations and this may
      cause some error
  (4) All equations used are the standard statistical mechanics
      equations for an ideal gas
  (5) All vibrations are strictly harmonic

freq.     271.41  E(vib)   ...       0.29 
freq.     351.15  E(vib)   ...       0.23 
freq.     475.30  E(vib)   ...       0.15 
freq.     545.96  E(vib)   ...       0.12 
freq.     684.47  E(vib)   ...       0.07 
freq.     705.40  E(vib)   ...       0.07 
freq.     801.30  E(vib)   ...       0.05 
freq.     832.19  E(vib)   ...       0.04 
freq.     890.25  E(vib)   ...       0.04 
freq.     931.35  E(vib)   ...       0.03 
freq.     978.70  E(vib)   ...       0.03 
freq.    1052.14  E(vib)   ...       0.02 
freq.    1105.21  E(vib)   ...       0.02 
freq.    1117.75  E(vib)   ...       0.01 
freq.    1154.35  E(vib)   ...       0.01 
freq.    1187.97  E(vib)   ...       0.01 
freq.    1212.82  E(vib)   ...       0.01 
freq.    1234.35  E(vib)   ...       0.01 
freq.    1266.52  E(vib)   ...       0.01 
freq.    1344.46  E(vib)   ...       0.01 
freq.    1361.49  E(vib)   ...       0.01 
freq.    1391.07  E(vib)   ...       0.00 
freq.    1485.35  E(vib)   ...       0.00 
freq.    1503.55  E(vib)   ...       0.00 
freq.    1547.53  E(vib)   ...       0.00 
freq.    1553.35  E(vib)   ...       0.00 
freq.    1616.34  E(vib)   ...       0.00 
freq.    1635.39  E(vib)   ...       0.00 
freq.    1723.60  E(vib)   ...       0.00 
freq.    1738.34  E(vib)   ...       0.00 
freq.    3218.82  E(vib)   ...       0.00 
freq.    3221.59  E(vib)   ...       0.00 
freq.    3231.23  E(vib)   ...       0.00 
freq.    3238.78  E(vib)   ...       0.00 
freq.    3280.11  E(vib)   ...       0.00 
freq.    3294.91  E(vib)   ...       0.00 
freq.    3342.12  E(vib)   ...       0.00 
freq.    3346.91  E(vib)   ...       0.00 
freq.    3354.42  E(vib)   ...       0.00 
freq.    3369.55  E(vib)   ...       0.00 

------------
INNER ENERGY
------------

The inner energy is: U= E(el) + E(ZPE) + E(vib) + E(rot) + E(trans)
    E(el)   - is the total energy from the electronic structure calculation
              = E(kin-el) + E(nuc-el) + E(el-el) + E(nuc-nuc)
    E(ZPE)  - the the zero temperature vibrational energy from the frequency calculation
    E(vib)  - the the finite temperature correction to E(ZPE) due to population
              of excited vibrational states
    E(rot)  - is the rotational thermal energy
    E(trans)- is the translational thermal energy

Summary of contributions to the inner energy U:
Electronic energy                ...   -231.48964192 Eh
Zero point energy                ...      0.15172031 Eh      95.21 kcal/mol
Thermal vibrational correction   ...      0.00198587 Eh       1.25 kcal/mol
Thermal rotational correction    ...      0.00141627 Eh       0.89 kcal/mol
Thermal translational correction ...      0.00141627 Eh       0.89 kcal/mol
-----------------------------------------------------------------------
Total thermal energy                   -231.33310319 Eh


Summary of corrections to the electronic energy:
(perhaps to be used in another calculation)
Total thermal correction                  0.00481842 Eh       3.02 kcal/mol
Non-thermal (ZPE) correction              0.15172031 Eh      95.21 kcal/mol
-----------------------------------------------------------------------
Total correction                          0.15653873 Eh      98.23 kcal/mol


--------
ENTHALPY
--------

The enthalpy is H = U + kB*T
                kB is Boltzmann's constant
Total free energy                 ...   -231.33310319 Eh 
Thermal Enthalpy correction       ...      0.00094421 Eh       0.59 kcal/mol
-----------------------------------------------------------------------
Total Enthalpy                    ...   -231.33215898 Eh


Note: Rotational entropy computed according to Herzberg 
Infrared and Raman Spectra, Chapter V,1, Van Nostrand Reinhold, 1945 
Point Group:  Cs, Symmetry Number:   1  
Rotational constants in cm-1:     0.150294     0.126281     0.078787 

Vibrational entropy computed according to the QRRHO of S. Grimme
Chem.Eur.J. 2012 18 9955


-------
ENTROPY
-------

The entropy contributions are T*S = T*(S(el)+S(vib)+S(rot)+S(trans))
     S(el)   - electronic entropy
     S(vib)  - vibrational entropy
     S(rot)  - rotational entropy
     S(trans)- translational entropy
The entropies will be listed as multiplied by the temperature to get
units of energy

Electronic entropy                ...      0.00000000 Eh      0.00 kcal/mol
Vibrational entropy               ...      0.00282309 Eh      1.77 kcal/mol
Rotational entropy                ...      0.01258195 Eh      7.90 kcal/mol
Translational entropy             ...      0.01859270 Eh     11.67 kcal/mol
-----------------------------------------------------------------------
Final entropy term                ...      0.03399774 Eh     21.33 kcal/mol

In case the symmetry of your molecule has not been determined correctly
or in case you have a reason to use a different symmetry number we print 
out the resulting rotational entropy values for sn=1,12 :
 --------------------------------------------------------
|  sn= 1 | S(rot)=       0.01258195 Eh      7.90 kcal/mol|
|  sn= 2 | S(rot)=       0.01192750 Eh      7.48 kcal/mol|
|  sn= 3 | S(rot)=       0.01154466 Eh      7.24 kcal/mol|
|  sn= 4 | S(rot)=       0.01127304 Eh      7.07 kcal/mol|
|  sn= 5 | S(rot)=       0.01106235 Eh      6.94 kcal/mol|
|  sn= 6 | S(rot)=       0.01089021 Eh      6.83 kcal/mol|
|  sn= 7 | S(rot)=       0.01074466 Eh      6.74 kcal/mol|
|  sn= 8 | S(rot)=       0.01061858 Eh      6.66 kcal/mol|
|  sn= 9 | S(rot)=       0.01050737 Eh      6.59 kcal/mol|
|  sn=10 | S(rot)=       0.01040789 Eh      6.53 kcal/mol|
|  sn=11 | S(rot)=       0.01031790 Eh      6.47 kcal/mol|
|  sn=12 | S(rot)=       0.01023575 Eh      6.42 kcal/mol|
 --------------------------------------------------------


-------------------
GIBBS FREE ENERGY
-------------------

The Gibbs free energy is G = H - T*S

Total enthalpy                    ...   -231.33215898 Eh 
Total entropy correction          ...     -0.03399774 Eh    -21.33 kcal/mol
-----------------------------------------------------------------------
Final Gibbs free energy         ...   -231.36615673 Eh

For completeness - the Gibbs free energy minus the electronic energy
G-E(el)                           ...      0.12348520 Eh     77.49 kcal/mol


Timings for individual modules:

Sum of individual times         ...       18.761 sec (=   0.313 min)
GTO integral calculation        ...        0.067 sec (=   0.001 min)   0.4 %
SCF iterations                  ...        1.896 sec (=   0.032 min)  10.1 %
SCF Gradient evaluation         ...        0.512 sec (=   0.009 min)   2.7 %
Analytical frequency calculation...       16.285 sec (=   0.271 min)  86.8 %
                             ****ORCA TERMINATED NORMALLY****
TOTAL RUN TIME: 0 days 0 hours 0 minutes 18 seconds 920 msec
